
                                 *****************
                                 * O   R   C   A *
                                 *****************

           --- An Ab Initio, DFT and Semiempirical electronic structure package ---

                  #######################################################
                  #                        -***-                        #
                  #          Department of theory and spectroscopy      #
                  #               Directorship: Frank Neese             #
                  #        Max Planck Institute fuer Kohlenforschung    #
                  #                Kaiser Wilhelm Platz 1               #
                  #                 D-45470 Muelheim/Ruhr               #
                  #                      Germany                        #
                  #                                                     #
                  #                  All rights reserved                #
                  #                        -***-                        #
                  #######################################################


                         Program Version 4.2.1 -  RELEASE  -


 With contributions from (in alphabetic order):
   Daniel Aravena         : Magnetic Suceptibility
   Michael Atanasov       : Ab Initio Ligand Field Theory (pilot matlab implementation)
   Alexander A. Auer      : GIAO ZORA, VPT2
   Ute Becker             : Parallelization
   Giovanni Bistoni       : ED, misc. LED, open-shell LED, HFLD
   Martin Brehm           : Molecular dynamics
   Dmytro Bykov           : SCF Hessian
   Vijay G. Chilkuri      : MRCI spin determinant printing, contributions to CSF-ICE
   Dipayan Datta          : RHF DLPNO-CCSD density
   Achintya Kumar Dutta   : EOM-CC, STEOM-CC
   Dmitry Ganyushin       : Spin-Orbit,Spin-Spin,Magnetic field MRCI
   Miquel Garcia          : C-PCM Hessian, Gaussian charge scheme
   Yang Guo               : DLPNO-NEVPT2, CIM, IAO-localization
   Andreas Hansen         : Spin unrestricted coupled pair/coupled cluster methods
   Benjamin Helmich-Paris : CASSCF linear response (MC-RPA)
   Lee Huntington         : MR-EOM, pCC
   Robert Izsak           : Overlap fitted RIJCOSX, COSX-SCS-MP3, EOM
   Christian Kollmar      : KDIIS, OOCD, Brueckner-CCSD(T), CCSD density
   Simone Kossmann        : Meta GGA functionals, TD-DFT gradient, OOMP2, MP2 Hessian
   Martin Krupicka        : AUTO-CI
   Lucas Lang             : DCDCAS
   Dagmar Lenk            : GEPOL surface, SMD
   Dimitrios Liakos       : Extrapolation schemes; Compound Job, initial MDCI parallelization
   Dimitrios Manganas     : Further ROCIS development; embedding schemes
   Dimitrios Pantazis     : SARC Basis sets
   Taras Petrenko         : DFT Hessian,TD-DFT gradient, ASA, ECA, R-Raman, ABS, FL, XAS/XES, NRVS
   Peter Pinski           : DLPNO-MP2, DLPNO-MP2 Gradient
   Christoph Reimann      : Effective Core Potentials
   Marius Retegan         : Local ZFS, SOC
   Christoph Riplinger    : Optimizer, TS searches, QM/MM, DLPNO-CCSD(T), (RO)-DLPNO pert. Triples
   Tobias Risthaus        : Range-separated hybrids, TD-DFT gradient, RPA, STAB
   Michael Roemelt        : Original ROCIS implementation
   Masaaki Saitow         : Open-shell DLPNO-CCSD energy and density
   Barbara Sandhoefer     : DKH picture change effects
   Avijit Sen             : IP-ROCIS
   Kantharuban Sivalingam : CASSCF convergence, NEVPT2, FIC-MRCI
   Bernardo de Souza      : ESD, SOC TD-DFT
   Georgi Stoychev        : AutoAux, RI-MP2 NMR
   Willem Van den Heuvel  : Paramagnetic NMR
   Boris Wezisla          : Elementary symmetry handling
   Frank Wennmohs         : Technical directorship


 We gratefully acknowledge several colleagues who have allowed us to
 interface, adapt or use parts of their codes:
   Stefan Grimme, W. Hujo, H. Kruse,             : VdW corrections, initial TS optimization,
                  C. Bannwarth                     DFT functionals, gCP, sTDA/sTD-DF
   Ed Valeev, F. Pavosevic, A. Kumar             : LibInt (2-el integral package), F12 methods
   Garnet Chan, S. Sharma, J. Yang, R. Olivares  : DMRG
   Ulf Ekstrom                                   : XCFun DFT Library
   Mihaly Kallay                                 : mrcc  (arbitrary order and MRCC methods)
   Andreas Klamt, Michael Diedenhofen            : otool_cosmo (COSMO solvation model)
   Jiri Pittner, Ondrej Demel                    : Mk-CCSD
   Frank Weinhold                                : gennbo (NPA and NBO analysis)
   Christopher J. Cramer and Donald G. Truhlar   : smd solvation model
   Lars Goerigk                                  : TD-DFT with DH, B97 family of functionals
   V. Asgeirsson, H. Jonsson                     : NEB implementation
   FAccTs GmbH                                   : IRC, NEB, NEB-TS, Multilevel, MM, QM/MM, CI optimization
   S Lehtola, MJT Oliveira, MAL Marques          : LibXC Library


 Your calculation uses the libint2 library for the computation of 2-el integrals
 For citations please refer to: http://libint.valeyev.net

 Your ORCA version has been built with support for libXC version: 4.2.3
 For citations please refer to: https://tddft.org/programs/libxc/

 This ORCA versions uses:
   CBLAS   interface :  Fast vector & matrix operations
   LAPACKE interface :  Fast linear algebra routines
   SCALAPACK package :  Parallel linear algebra routines


----- Orbital basis set information -----
Your calculation utilizes the basis: STO-3G
   H-Ne       : W. J. Hehre, R. F. Stewart and J. A. Pople, J. Chem. Phys. 2657 (1969).
   Na-Ar      : W. J. Hehre, R. Ditchfield, R. F. Stewart and J. A. Pople, J. Chem. Phys. 2769 (1970).
   K,Ca,Ga-Kr : W. J. Pietro, B. A. Levy, W. J. Hehre and R. F. Stewart, J. Am. Chem. Soc. 19, 2225 (1980).
   Sc-Zn,Y-Cd : W. J. Pietro and W. J. Hehre, J. Comp. Chem. 4, 241 (1983).

================================================================================
                                        WARNINGS
                       Please study these warnings very carefully!
================================================================================


WARNING: Geometry Optimization
  ===> : Switching off AutoStart
         For restart on a previous wavefunction, please use MOREAD

INFO   : the flag for use of LIBINT has been found!

================================================================================
                                       INPUT FILE
================================================================================
NAME = water.inp
|  1> ! Opt Freq STO-3G
|  2> *xyz 0 1
|  3> O 0 0 0
|  4> H 0 1 0
|  5> H 0 0 1
|  6> *
|  7> 
|  8>                          ****END OF INPUT****
================================================================================

                       *****************************
                       * Geometry Optimization Run *
                       *****************************

Geometry optimization settings:
Update method            Update   .... BFGS
Choice of coordinates    CoordSys .... Z-matrix Internals
Initial Hessian          InHess   .... Almoef's Model

Convergence Tolerances:
Energy Change            TolE     ....  5.0000e-06 Eh
Max. Gradient            TolMAXG  ....  3.0000e-04 Eh/bohr
RMS Gradient             TolRMSG  ....  1.0000e-04 Eh/bohr
Max. Displacement        TolMAXD  ....  4.0000e-03 bohr
RMS Displacement         TolRMSD  ....  2.0000e-03 bohr
Strict Convergence                ....  False
------------------------------------------------------------------------------
                        ORCA OPTIMIZATION COORDINATE SETUP
------------------------------------------------------------------------------

The optimization will be done in new redundant internal coordinates
Making redundant internal coordinates   ...  (new redundants) done
Evaluating the initial hessian          ...  (Almloef) done
Evaluating the coordinates              ...  done
Calculating the B-matrix                .... done
Calculating the G-matrix                .... done
Diagonalizing the G-matrix              .... done
The first mode is                       ....    0
The number of degrees of freedom        ....    3

    -----------------------------------------------------------------
                    Redundant Internal Coordinates


    -----------------------------------------------------------------
         Definition                    Initial Value    Approx d2E/dq
    -----------------------------------------------------------------
      1. B(H   1,O   0)                  1.0000         0.448900   
      2. B(H   2,O   0)                  1.0000         0.448900   
      3. A(H   1,O   0,H   2)           90.0000         0.306850   
    -----------------------------------------------------------------

Number of atoms                         .... 3
Number of degrees of freedom            .... 3

         *************************************************************
         *                GEOMETRY OPTIMIZATION CYCLE   1            *
         *************************************************************
---------------------------------
CARTESIAN COORDINATES (ANGSTROEM)
---------------------------------
  O      0.000000    0.000000    0.000000
  H      0.000000    1.000000    0.000000
  H      0.000000    0.000000    1.000000

----------------------------
CARTESIAN COORDINATES (A.U.)
----------------------------
  NO LB      ZA    FRAG     MASS         X           Y           Z
   0 O     8.0000    0    15.999    0.000000    0.000000    0.000000
   1 H     1.0000    0     1.008    0.000000    1.889726    0.000000
   2 H     1.0000    0     1.008    0.000000    0.000000    1.889726

--------------------------------
INTERNAL COORDINATES (ANGSTROEM)
--------------------------------
 O      0   0   0     0.000000000000     0.00000000     0.00000000
 H      1   0   0     1.000000000000     0.00000000     0.00000000
 H      1   2   0     1.000000000000    90.00000000     0.00000000

---------------------------
INTERNAL COORDINATES (A.U.)
---------------------------
 O      0   0   0     0.000000000000     0.00000000     0.00000000
 H      1   0   0     1.889726133921     0.00000000     0.00000000
 H      1   2   0     1.889726133921    90.00000000     0.00000000

---------------------
BASIS SET INFORMATION
---------------------
There are 2 groups of distinct atoms

 Group   1 Type O   : 6s3p contracted to 2s1p pattern {33/3}
 Group   2 Type H   : 3s contracted to 1s pattern {3}

Atom   0O    basis set group =>   1
Atom   1H    basis set group =>   2
Atom   2H    basis set group =>   2
------------------------------------------------------------------------------
                           ORCA GTO INTEGRAL CALCULATION
------------------------------------------------------------------------------

                         BASIS SET STATISTICS AND STARTUP INFO

 # of primitive gaussian shells          ...   15
 # of primitive gaussian functions       ...   21
 # of contracted shells                  ...    5
 # of contracted basis functions         ...    7
 Highest angular momentum                ...    1
 Maximum contraction depth               ...    3
 Integral package used                   ... LIBINT
 Integral threshhold            Thresh   ...  2.500e-11
 Primitive cut-off              TCut     ...  2.500e-12


------------------------------ INTEGRAL EVALUATION ----------------------------


 * One electron integrals 
 Pre-screening matrix                    ... done
 Shell pair data                         ... done (   0.000 sec)

-------------------------------------------------------------------------------
                                 ORCA SCF
-------------------------------------------------------------------------------

------------
SCF SETTINGS
------------
Hamiltonian:
 Ab initio Hamiltonian  Method          .... Hartree-Fock(GTOs)


General Settings:
 Integral files         IntName         .... water
 Hartree-Fock type      HFTyp           .... RHF
 Total Charge           Charge          ....    0
 Multiplicity           Mult            ....    1
 Number of Electrons    NEL             ....   10
 Basis Dimension        Dim             ....    7
 Nuclear Repulsion      ENuc            ....      8.8410201252 Eh

Convergence Acceleration:
 DIIS                   CNVDIIS         .... on
   Start iteration      DIISMaxIt       ....    12
   Startup error        DIISStart       ....  0.200000
   # of expansion vecs  DIISMaxEq       ....     5
   Bias factor          DIISBfac        ....   1.050
   Max. coefficient     DIISMaxC        ....  10.000
 Newton-Raphson         CNVNR           .... off
 SOSCF                  CNVSOSCF        .... on
   Start iteration      SOSCFMaxIt      ....   150
   Startup grad/error   SOSCFStart      ....  0.003300
 Level Shifting         CNVShift        .... on
   Level shift para.    LevelShift      ....    0.2500
   Turn off err/grad.   ShiftErr        ....    0.0010
 Zerner damping         CNVZerner       .... off
 Static damping         CNVDamp         .... on
   Fraction old density DampFac         ....    0.7000
   Max. Damping (<1)    DampMax         ....    0.9800
   Min. Damping (>=0)   DampMin         ....    0.0000
   Turn off err/grad.   DampErr         ....    0.1000
 Fernandez-Rico         CNVRico         .... off

SCF Procedure:
 Maximum # iterations   MaxIter         ....   125
 SCF integral mode      SCFMode         .... Direct
   Integral package                     .... LIBINT
 Reset frequency        DirectResetFreq ....    20
 Integral Threshold     Thresh          ....  2.500e-11 Eh
 Primitive CutOff       TCut            ....  2.500e-12 Eh

Convergence Tolerance:
 Convergence Check Mode ConvCheckMode   .... Total+1el-Energy
 Convergence forced     ConvForced      .... 0
 Energy Change          TolE            ....  1.000e-08 Eh
 1-El. energy change                    ....  1.000e-05 Eh
 Orbital Gradient       TolG            ....  1.000e-05
 Orbital Rotation angle TolX            ....  1.000e-05
 DIIS Error             TolErr          ....  5.000e-07


Diagonalization of the overlap matrix:
Smallest eigenvalue                        ... 3.720e-01
Time for diagonalization                   ...    0.001 sec
Threshold for overlap eigenvalues          ... 1.000e-08
Number of eigenvalues below threshold      ... 0
Time for construction of square roots      ...    0.000 sec
Total time needed                          ...    0.001 sec

-------------------
DFT GRID GENERATION
-------------------

General Integration Accuracy     IntAcc      ...  4.340
Radial Grid Type                 RadialGrid  ... Gauss-Chebyshev
Angular Grid (max. acc.)         AngularGrid ... Lebedev-110
Angular grid pruning method      GridPruning ... 3 (G Style)
Weight generation scheme         WeightScheme... Becke
Basis function cutoff            BFCut       ...    1.0000e-11
Integration weight cutoff        WCut        ...    1.0000e-14
Grids for H and He will be reduced by one unit

# of grid points (after initial pruning)     ...   3304 (   0.0 sec)
# of grid points (after weights+screening)   ...   3236 (   0.0 sec)
nearest neighbour list constructed           ...    0.0 sec
Grid point re-assignment to atoms done       ...    0.0 sec
Grid point division into batches done        ...    0.0 sec
Reduced shell lists constructed in    0.0 sec

Total number of grid points                  ...     3236
Total number of batches                      ...       53
Average number of points per batch           ...       61
Average number of grid points per atom       ...     1079
Average number of shells per batch           ...     4.56 (91.11%)
Average number of basis functions per batch  ...     6.52 (93.12%)
Average number of large shells per batch     ...     4.35 (95.53%)
Average number of large basis fcns per batch ...     6.31 (96.88%)
Maximum spatial batch extension              ...  20.95, 15.38, 15.78 au
Average spatial batch extension              ...   6.32,  4.91,  5.43 au

Time for grid setup =    0.007 sec

------------------------------
INITIAL GUESS: MODEL POTENTIAL
------------------------------
Loading Hartree-Fock densities                     ... done
Calculating cut-offs                               ... done
Setting up the integral package                    ... done
Initializing the effective Hamiltonian             ... done
Starting the Coulomb interaction                   ... done (   0.0 sec)
Reading the grid                                   ... done
Mapping shells                                     ... done
Starting the XC term evaluation                    ... done (   0.0 sec)
Transforming the Hamiltonian                       ... done (   0.0 sec)
Diagonalizing the Hamiltonian                      ... done (   0.0 sec)
Back transforming the eigenvectors                 ... done (   0.0 sec)
Now organizing SCF variables                       ... done
                      ------------------
                      INITIAL GUESS DONE (   0.1 sec)
                      ------------------
--------------
SCF ITERATIONS
--------------
ITER       Energy         Delta-E        Max-DP      RMS-DP      [F,P]     Damp
               ***  Starting incremental Fock matrix formation  ***
  0    -74.8975927300   0.000000000000 0.07110219  0.02023651  0.2293310 0.7000
  1    -74.9176472414  -0.020054511378 0.06016292  0.01723644  0.1659150 0.7000
                               ***Turning on DIIS***
  2    -74.9314222728  -0.013775031361 0.04233805  0.01213986  0.1120974 0.7000
  3    -75.1000356958  -0.168613423038 0.09012025  0.02583290  0.0743366 0.0000
  4    -74.9468666005   0.153169095245 0.00406924  0.00115059  0.0048284 0.0000
                      *** Initiating the SOSCF procedure ***
                           *** Shutting down DIIS ***
                      *** Re-Reading the Fockian *** 
                      *** Removing any level shift *** 
ITER      Energy       Delta-E        Grad      Rot      Max-DP    RMS-DP
  5    -74.95857067  -0.0117040662  0.001011  0.001011  0.001512  0.000299
               *** Restarting incremental Fock matrix formation ***
  6    -74.96117111  -0.0026004420  0.000099  0.000059  0.000244  0.000046
  7    -74.96117113  -0.0000000250  0.000029  0.000043  0.000124  0.000026
                 **** Energy Check signals convergence ****
              ***Rediagonalizing the Fockian in SOSCF/NRSCF***

               *****************************************************
               *                     SUCCESS                       *
               *           SCF CONVERGED AFTER   8 CYCLES          *
               *****************************************************


----------------
TOTAL SCF ENERGY
----------------

Total Energy       :          -74.96117114 Eh           -2039.79717 eV

Components:
Nuclear Repulsion  :            8.84102013 Eh             240.57639 eV
Electronic Energy  :          -83.80219126 Eh           -2280.37356 eV
One Electron Energy:         -121.66043638 Eh           -3310.54878 eV
Two Electron Energy:           37.85824512 Eh            1030.17522 eV

Virial components:
Potential Energy   :         -149.47430922 Eh           -4067.40274 eV
Kinetic Energy     :           74.51313809 Eh            2027.60557 eV
Virial Ratio       :            2.00601281


---------------
SCF CONVERGENCE
---------------

  Last Energy change         ...   -3.7178e-09  Tolerance :   1.0000e-08
  Last MAX-Density change    ...    1.0986e-05  Tolerance :   1.0000e-07
  Last RMS-Density change    ...    2.2452e-06  Tolerance :   5.0000e-09
  Last Orbital Gradient      ...    4.8805e-06  Tolerance :   1.0000e-05
  Last Orbital Rotation      ...    4.5881e-06  Tolerance :   1.0000e-05

             **** THE GBW FILE WAS UPDATED (water.gbw) ****
             **** DENSITY FILE WAS UPDATED (water.scfp) ****
             **** ENERGY FILE WAS UPDATED (water.en.tmp) ****
             **** THE GBW FILE WAS UPDATED (water.gbw) ****
             **** DENSITY FILE WAS UPDATED (water.scfp) ****
----------------
ORBITAL ENERGIES
----------------

  NO   OCC          E(Eh)            E(eV) 
   0   2.0000     -20.262051      -551.3584 
   1   2.0000      -1.262275       -34.3482 
   2   2.0000      -0.569375       -15.4935 
   3   2.0000      -0.480782       -13.0828 
   4   2.0000      -0.397492       -10.8163 
   5   0.0000       0.582523        15.8513 
   6   0.0000       0.658078        17.9072 

                    ********************************
                    * MULLIKEN POPULATION ANALYSIS *
                    ********************************

-----------------------
MULLIKEN ATOMIC CHARGES
-----------------------
   0 O :   -0.311280
   1 H :    0.155640
   2 H :    0.155640
Sum of atomic charges:    0.0000000

--------------------------------
MULLIKEN REDUCED ORBITAL CHARGES
--------------------------------
  0 O s       :     3.869131  s :     3.869131
      pz      :     1.221074  p :     4.442149
      px      :     2.000000
      py      :     1.221074
  1 H s       :     0.844360  s :     0.844360
  2 H s       :     0.844360  s :     0.844360


                     *******************************
                     * LOEWDIN POPULATION ANALYSIS *
                     *******************************

----------------------
LOEWDIN ATOMIC CHARGES
----------------------
   0 O :   -0.221273
   1 H :    0.110636
   2 H :    0.110636

-------------------------------
LOEWDIN REDUCED ORBITAL CHARGES
-------------------------------
  0 O s       :     3.738352  s :     3.738352
      pz      :     1.241460  p :     4.482921
      px      :     2.000000
      py      :     1.241460
  1 H s       :     0.889364  s :     0.889364
  2 H s       :     0.889364  s :     0.889364


                      *****************************
                      * MAYER POPULATION ANALYSIS *
                      *****************************

  NA   - Mulliken gross atomic population
  ZA   - Total nuclear charge
  QA   - Mulliken gross atomic charge
  VA   - Mayer's total valence
  BVA  - Mayer's bonded valence
  FA   - Mayer's free valence

  ATOM       NA         ZA         QA         VA         BVA        FA
  0 O      8.3113     8.0000    -0.3113     1.9470     1.9470     0.0000
  1 H      0.8444     1.0000     0.1556     0.9758     0.9758     0.0000
  2 H      0.8444     1.0000     0.1556     0.9758     0.9758     0.0000

  Mayer bond orders larger than 0.100000
B(  0-O ,  1-H ) :   0.9735 B(  0-O ,  2-H ) :   0.9735 

-------
TIMINGS
-------

Total SCF time: 0 days 0 hours 0 min 0 sec 

Total time                  ....       0.749 sec
Sum of individual times     ....       0.617 sec  ( 82.4%)

Fock matrix formation       ....       0.521 sec  ( 69.6%)
Diagonalization             ....       0.000 sec  (  0.0%)
Density matrix formation    ....       0.000 sec  (  0.0%)
Population analysis         ....       0.000 sec  (  0.1%)
Initial guess               ....       0.087 sec  ( 11.6%)
Orbital Transformation      ....       0.000 sec  (  0.0%)
Orbital Orthonormalization  ....       0.000 sec  (  0.0%)
DIIS solution               ....       0.001 sec  (  0.1%)
SOSCF solution              ....       0.000 sec  (  0.1%)

-------------------------   --------------------
FINAL SINGLE POINT ENERGY       -74.961171137557
-------------------------   --------------------

------------------------------------------------------------------------------
                         ORCA SCF GRADIENT CALCULATION
------------------------------------------------------------------------------

Gradient of the Hartree-Fock SCF energy:
Hartree-Fock type                ... RHF
Number of operators              ...    1
Number of atoms                  ...    3
Basis set dimensions             ...    7
Integral neglect threshold       ... 2.5e-11
Integral primitive cutoff        ... 2.5e-12

Nuclear repulsion gradient       ... done
One Electron Gradient            ... done
Pre-screening matrix             ... done
Starting the two electron gradient:
Two electron gradient done

------------------
CARTESIAN GRADIENT
------------------

   1   O   :    0.000000000   -0.033468839   -0.033468839
   2   H   :   -0.000000000    0.004887959    0.028580880
   3   H   :   -0.000000000    0.028580880    0.004887959

Difference to translation invariance:
           :    0.0000000000    0.0000000000    0.0000000000

Norm of the cartesian gradient     ...    0.0626246289
RMS gradient                       ...    0.0208748763
MAX gradient                       ...    0.0334688394

-------
TIMINGS
-------

Total SCF gradient time            ...        0.093 sec

One electron gradient       ....       0.000 sec  (  0.4%)
Prescreening matrices       ....       0.000 sec  (  0.4%)
Two electron gradient       ....       0.002 sec  (  1.8%)
------------------------------------------------------------------------------
                         ORCA GEOMETRY RELAXATION STEP
------------------------------------------------------------------------------

Reading the OPT-File                    .... done
Getting information on internals        .... done
Copying old internal coords+grads       .... done
Making the new internal coordinates     .... (new redundants).... done
Validating the new internal coordinates .... (new redundants).... done
Calculating the B-matrix                .... done
Calculating the G,G- and P matrices     .... done
Transforming gradient to internals      .... done
Projecting the internal gradient        .... done
Number of atoms                         ....   3
Number of internal coordinates          ....   3
Current Energy                          ....   -74.961171138 Eh
Current gradient norm                   ....     0.062624629 Eh/bohr
Maximum allowed component of the step   ....  0.300
Current trust radius                    ....  0.300
Evaluating the initial hessian          ....  (Almloef) done
Projecting the Hessian                  .... done
Forming the augmented Hessian           .... done
Diagonalizing the augmented Hessian     .... done
Last element of RFO vector              ....  0.985612956
Lowest eigenvalues of augmented Hessian:
 -0.009330296  0.316068745  0.448899677
Length of the computed step             ....  0.171485212
The final length of the internal step   ....  0.171485212
Converting the step to cartesian space:
 Initial RMS(Int)=    0.0990070333
Transforming coordinates:
 Iter   0:  RMS(Cart)=    0.0601758800 RMS(Int)=    0.0989875293
 Iter   1:  RMS(Cart)=    0.0027684046 RMS(Int)=    0.0056651131
 Iter   2:  RMS(Cart)=    0.0002252395 RMS(Int)=    0.0003658994
 Iter   3:  RMS(Cart)=    0.0000201487 RMS(Int)=    0.0000415947
 Iter   4:  RMS(Cart)=    0.0000016670 RMS(Int)=    0.0000026841
 Iter   5:  RMS(Cart)=    0.0000001459 RMS(Int)=    0.0000003038
 Iter   6:  RMS(Cart)=    0.0000000123 RMS(Int)=    0.0000000197
done
Storing new coordinates                 .... done

                                .--------------------.
          ----------------------|Geometry convergence|-------------------------
          Item                value                   Tolerance       Converged
          ---------------------------------------------------------------------
          RMS gradient        0.0314370710            0.0001000000      NO
          MAX gradient        0.0540100363            0.0003000000      NO
          RMS step            0.0990070333            0.0020000000      NO
          MAX step            0.1708203919            0.0040000000      NO
          ........................................................
          Max(Bonds)      0.0056      Max(Angles)    9.79
          Max(Dihed)        0.00      Max(Improp)    0.00
          ---------------------------------------------------------------------

The optimization has not yet converged - more geometry cycles are needed


    ---------------------------------------------------------------------------
                         Redundant Internal Coordinates
                            (Angstroem and degrees)

        Definition                    Value    dE/dq     Step     New-Value
    ----------------------------------------------------------------------------
     1. B(H   1,O   0)                1.0000  0.004888 -0.0056    0.9944   
     2. B(H   2,O   0)                1.0000  0.004888 -0.0056    0.9944   
     3. A(H   1,O   0,H   2)           90.00 -0.054010    9.79     99.79   
    ----------------------------------------------------------------------------

         *************************************************************
         *                GEOMETRY OPTIMIZATION CYCLE   2            *
         *************************************************************
---------------------------------
CARTESIAN COORDINATES (ANGSTROEM)
---------------------------------
  O      0.000000    0.031365    0.031365
  H      0.000000    1.022095   -0.053460
  H      0.000000   -0.053460    1.022095

----------------------------
CARTESIAN COORDINATES (A.U.)
----------------------------
  NO LB      ZA    FRAG     MASS         X           Y           Z
   0 O     8.0000    0    15.999    0.000000    0.059271    0.059271
   1 H     1.0000    0     1.008    0.000000    1.931480   -0.101025
   2 H     1.0000    0     1.008    0.000000   -0.101025    1.931480

--------------------------------
INTERNAL COORDINATES (ANGSTROEM)
--------------------------------
 O      0   0   0     0.000000000000     0.00000000     0.00000000
 H      1   0   0     0.994355242063     0.00000000     0.00000000
 H      1   2   0     0.994355242063    99.78728751     0.00000000

---------------------------
INTERNAL COORDINATES (A.U.)
---------------------------
 O      0   0   0     0.000000000000     0.00000000     0.00000000
 H      1   0   0     1.879059087327     0.00000000     0.00000000
 H      1   2   0     1.879059087328    99.78728751     0.00000000


Diagonalization of the overlap matrix:
Smallest eigenvalue                        ... 3.664e-01
Time for diagonalization                   ...    0.000 sec
Threshold for overlap eigenvalues          ... 1.000e-08
Number of eigenvalues below threshold      ... 0
Time for construction of square roots      ...    0.000 sec
Total time needed                          ...    0.001 sec

--------------
SCF ITERATIONS
--------------
ITER       Energy         Delta-E        Max-DP      RMS-DP      [F,P]     Damp
               ***  Starting incremental Fock matrix formation  ***
  0    -74.9650113969   0.000000000000 0.00772428  0.00196161  0.0111598 0.7000
  1    -74.9651685541  -0.000157157204 0.00755271  0.00190568  0.0098447 0.7000
                               ***Turning on DIIS***
  2    -74.9653084399  -0.000139885797 0.02135868  0.00532848  0.0084831 0.0000
  3    -74.9586965982   0.006611841767 0.01114039  0.00268598  0.0044284 0.0000
                      *** Initiating the SOSCF procedure ***
                           *** Shutting down DIIS ***
                      *** Re-Reading the Fockian *** 
                      *** Removing any level shift *** 
ITER      Energy       Delta-E        Grad      Rot      Max-DP    RMS-DP
  4    -74.96432610  -0.0056295001  0.002655  0.002655  0.004019  0.001066
               *** Restarting incremental Fock matrix formation ***
  5    -74.96584709  -0.0015209927  0.000335  0.000323  0.000526  0.000150
  6    -74.96584747  -0.0000003745  0.000124  0.000218  0.000424  0.000114
  7    -74.96584755  -0.0000000858  0.000008  0.000004  0.000018  0.000004
                 **** Energy Check signals convergence ****
              ***Rediagonalizing the Fockian in SOSCF/NRSCF***

               *****************************************************
               *                     SUCCESS                       *
               *           SCF CONVERGED AFTER   8 CYCLES          *
               *****************************************************

Total Energy       :          -74.96584755 Eh           -2039.92442 eV
  Last Energy change         ...   -1.5973e-10  Tolerance :   1.0000e-08
  Last MAX-Density change    ...    5.9263e-06  Tolerance :   1.0000e-07
             **** THE GBW FILE WAS UPDATED (water.gbw) ****
             **** DENSITY FILE WAS UPDATED (water.scfp) ****
             **** ENERGY FILE WAS UPDATED (water.en.tmp) ****
             **** THE GBW FILE WAS UPDATED (water.gbw) ****
             **** DENSITY FILE WAS UPDATED (water.scfp) ****
Total SCF time: 0 days 0 hours 0 min 0 sec 

-------------------------   --------------------
FINAL SINGLE POINT ENERGY       -74.965847551329
-------------------------   --------------------

------------------------------------------------------------------------------
                         ORCA SCF GRADIENT CALCULATION
------------------------------------------------------------------------------

Gradient of the Hartree-Fock SCF energy:
Hartree-Fock type                ... RHF
Number of operators              ...    1
Number of atoms                  ...    3
Basis set dimensions             ...    7
Integral neglect threshold       ... 2.5e-11
Integral primitive cutoff        ... 2.5e-12

Nuclear repulsion gradient       ... done
One Electron Gradient            ... done
Pre-screening matrix             ... done
Starting the two electron gradient:
Two electron gradient done

------------------
CARTESIAN GRADIENT
------------------

   1   O   :   -0.000000000   -0.005408117   -0.005408117
   2   H   :    0.000000000    0.005596987   -0.000188871
   3   H   :    0.000000000   -0.000188871    0.005596987

Difference to translation invariance:
           :   -0.0000000000    0.0000000000    0.0000000000

Norm of the cartesian gradient     ...    0.0110099650
RMS gradient                       ...    0.0036699883
MAX gradient                       ...    0.0055969873

-------
TIMINGS
-------

Total SCF gradient time            ...        0.092 sec

One electron gradient       ....       0.000 sec  (  0.5%)
Prescreening matrices       ....       0.000 sec  (  0.4%)
Two electron gradient       ....       0.001 sec  (  1.5%)
------------------------------------------------------------------------------
                         ORCA GEOMETRY RELAXATION STEP
------------------------------------------------------------------------------

Reading the OPT-File                    .... done
Getting information on internals        .... done
Copying old internal coords+grads       .... done
Making the new internal coordinates     .... (new redundants).... done
Validating the new internal coordinates .... (new redundants).... done
Calculating the B-matrix                .... done
Calculating the G,G- and P matrices     .... done
Transforming gradient to internals      .... done
Projecting the internal gradient        .... done
Number of atoms                         ....   3
Number of internal coordinates          ....   3
Current Energy                          ....   -74.965847551 Eh
Current gradient norm                   ....     0.011009965 Eh/bohr
Maximum allowed component of the step   ....  0.300
Current trust radius                    ....  0.300
Updating the Hessian (BFGS)             .... done
Forming the augmented Hessian           .... done
Diagonalizing the augmented Hessian     .... done
Last element of RFO vector              ....  0.999824307
Lowest eigenvalues of augmented Hessian:
 -0.000146658  0.302649477  0.448899677
Length of the computed step             ....  0.018747783
The final length of the internal step   ....  0.018747783
Converting the step to cartesian space:
 Initial RMS(Int)=    0.0108240376
Transforming coordinates:
 Iter   0:  RMS(Cart)=    0.0046213601 RMS(Int)=    0.0108245139
 Iter   1:  RMS(Cart)=    0.0000112683 RMS(Int)=    0.0000176723
 Iter   2:  RMS(Cart)=    0.0000000823 RMS(Int)=    0.0000001239
done
Storing new coordinates                 .... done

                                .--------------------.
          ----------------------|Geometry convergence|-------------------------
          Item                value                   Tolerance       Converged
          ---------------------------------------------------------------------
          Energy change      -0.0046764138            0.0000050000      NO
          RMS gradient        0.0045771892            0.0001000000      NO
          MAX gradient        0.0055926969            0.0003000000      NO
          RMS step            0.0108240376            0.0020000000      NO
          MAX step            0.0129023493            0.0040000000      NO
          ........................................................
          Max(Bonds)      0.0068      Max(Angles)    0.25
          Max(Dihed)        0.00      Max(Improp)    0.00
          ---------------------------------------------------------------------

The optimization has not yet converged - more geometry cycles are needed


    ---------------------------------------------------------------------------
                         Redundant Internal Coordinates
                            (Angstroem and degrees)

        Definition                    Value    dE/dq     Step     New-Value
    ----------------------------------------------------------------------------
     1. B(H   1,O   0)                0.9944  0.005593 -0.0068    0.9875   
     2. B(H   2,O   0)                0.9944  0.005593 -0.0068    0.9875   
     3. A(H   1,O   0,H   2)           99.79 -0.000544    0.25    100.03   
    ----------------------------------------------------------------------------

         *************************************************************
         *                GEOMETRY OPTIMIZATION CYCLE   3            *
         *************************************************************
---------------------------------
CARTESIAN COORDINATES (ANGSTROEM)
---------------------------------
  O      0.000000    0.034205    0.034205
  H      0.000000    1.017950   -0.052155
  H      0.000000   -0.052155    1.017950

----------------------------
CARTESIAN COORDINATES (A.U.)
----------------------------
  NO LB      ZA    FRAG     MASS         X           Y           Z
   0 O     8.0000    0    15.999    0.000000    0.064639    0.064639
   1 H     1.0000    0     1.008    0.000000    1.923646   -0.098559
   2 H     1.0000    0     1.008    0.000000   -0.098559    1.923646

--------------------------------
INTERNAL COORDINATES (ANGSTROEM)
--------------------------------
 O      0   0   0     0.000000000000     0.00000000     0.00000000
 H      1   0   0     0.987527613063     0.00000000     0.00000000
 H      1   2   0     0.987527613063   100.03397991     0.00000000

---------------------------
INTERNAL COORDINATES (A.U.)
---------------------------
 O      0   0   0     0.000000000000     0.00000000     0.00000000
 H      1   0   0     1.866156738374     0.00000000     0.00000000
 H      1   2   0     1.866156738374   100.03397991     0.00000000


Diagonalization of the overlap matrix:
Smallest eigenvalue                        ... 3.619e-01
Time for diagonalization                   ...    0.000 sec
Threshold for overlap eigenvalues          ... 1.000e-08
Number of eigenvalues below threshold      ... 0
Time for construction of square roots      ...    0.000 sec
Total time needed                          ...    0.001 sec

--------------
SCF ITERATIONS
--------------
ITER       Energy         Delta-E        Max-DP      RMS-DP      [F,P]     Damp
               ***  Starting incremental Fock matrix formation  ***
                      *** Initiating the SOSCF procedure ***
                      *** Re-Reading the Fockian *** 
                      *** Removing any level shift *** 
ITER      Energy       Delta-E        Grad      Rot      Max-DP    RMS-DP
  0    -74.96588007 -74.9658800717  0.002157  0.002157  0.002630  0.000900
               *** Restarting incremental Fock matrix formation ***
  1    -74.96589108  -0.0000110119  0.000781  0.000748  0.001572  0.000392
  2    -74.96589289  -0.0000018104  0.000295  0.000509  0.001144  0.000280
  3    -74.96589331  -0.0000004176  0.000023  0.000013  0.000030  0.000006
                 **** Energy Check signals convergence ****
              ***Rediagonalizing the Fockian in SOSCF/NRSCF***

               *****************************************************
               *                     SUCCESS                       *
               *           SCF CONVERGED AFTER   4 CYCLES          *
               *****************************************************

Total Energy       :          -74.96589331 Eh           -2039.92566 eV
  Last Energy change         ...   -7.3200e-10  Tolerance :   1.0000e-08
  Last MAX-Density change    ...    9.3493e-06  Tolerance :   1.0000e-07
             **** THE GBW FILE WAS UPDATED (water.gbw) ****
             **** DENSITY FILE WAS UPDATED (water.scfp) ****
             **** ENERGY FILE WAS UPDATED (water.en.tmp) ****
             **** THE GBW FILE WAS UPDATED (water.gbw) ****
             **** DENSITY FILE WAS UPDATED (water.scfp) ****
Total SCF time: 0 days 0 hours 0 min 0 sec 

-------------------------   --------------------
FINAL SINGLE POINT ENERGY       -74.965893312387
-------------------------   --------------------

------------------------------------------------------------------------------
                         ORCA SCF GRADIENT CALCULATION
------------------------------------------------------------------------------

Gradient of the Hartree-Fock SCF energy:
Hartree-Fock type                ... RHF
Number of operators              ...    1
Number of atoms                  ...    3
Basis set dimensions             ...    7
Integral neglect threshold       ... 2.5e-11
Integral primitive cutoff        ... 2.5e-12

Nuclear repulsion gradient       ... done
One Electron Gradient            ... done
Pre-screening matrix             ... done
Starting the two electron gradient:
Two electron gradient done

------------------
CARTESIAN GRADIENT
------------------

   1   O   :    0.000000000    0.001886209    0.001886209
   2   H   :   -0.000000000   -0.002204632    0.000318423
   3   H   :   -0.000000000    0.000318423   -0.002204632

Difference to translation invariance:
           :    0.0000000000    0.0000000000    0.0000000000

Norm of the cartesian gradient     ...    0.0041278516
RMS gradient                       ...    0.0013759505
MAX gradient                       ...    0.0022046320

-------
TIMINGS
-------

Total SCF gradient time            ...        0.089 sec

One electron gradient       ....       0.000 sec  (  0.5%)
Prescreening matrices       ....       0.000 sec  (  0.6%)
Two electron gradient       ....       0.001 sec  (  1.6%)
------------------------------------------------------------------------------
                         ORCA GEOMETRY RELAXATION STEP
------------------------------------------------------------------------------

Reading the OPT-File                    .... done
Getting information on internals        .... done
Copying old internal coords+grads       .... done
Making the new internal coordinates     .... (new redundants).... done
Validating the new internal coordinates .... (new redundants).... done
Calculating the B-matrix                .... done
Calculating the G,G- and P matrices     .... done
Transforming gradient to internals      .... done
Projecting the internal gradient        .... done
Number of atoms                         ....   3
Number of internal coordinates          ....   3
Current Energy                          ....   -74.965893312 Eh
Current gradient norm                   ....     0.004127852 Eh/bohr
Maximum allowed component of the step   ....  0.300
Current trust radius                    ....  0.300
Updating the Hessian (BFGS)             .... done
Forming the augmented Hessian           .... done
Diagonalizing the augmented Hessian     .... done
Last element of RFO vector              ....  0.999986999
Lowest eigenvalues of augmented Hessian:
 -0.000015983  0.304975448  0.448899677
Length of the computed step             ....  0.005099219
The final length of the internal step   ....  0.005099219
Converting the step to cartesian space:
 Initial RMS(Int)=    0.0029440354
Transforming coordinates:
 Iter   0:  RMS(Cart)=    0.0014148088 RMS(Int)=    0.0029440344
 Iter   1:  RMS(Cart)=    0.0000001278 RMS(Int)=    0.0000002119
 Iter   2:  RMS(Cart)=    0.0000000002 RMS(Int)=    0.0000000004
done
Storing new coordinates                 .... done

                                .--------------------.
          ----------------------|Geometry convergence|-------------------------
          Item                value                   Tolerance       Converged
          ---------------------------------------------------------------------
          Energy change      -0.0000457611            0.0000050000      NO
          RMS gradient        0.0018208547            0.0001000000      NO
          MAX gradient        0.0022240321            0.0003000000      NO
          RMS step            0.0029440354            0.0020000000      NO
          MAX step            0.0036031695            0.0040000000      YES
          ........................................................
          Max(Bonds)      0.0019      Max(Angles)    0.01
          Max(Dihed)        0.00      Max(Improp)    0.00
          ---------------------------------------------------------------------

The optimization has not yet converged - more geometry cycles are needed


    ---------------------------------------------------------------------------
                         Redundant Internal Coordinates
                            (Angstroem and degrees)

        Definition                    Value    dE/dq     Step     New-Value
    ----------------------------------------------------------------------------
     1. B(H   1,O   0)                0.9875 -0.002224  0.0019    0.9894   
     2. B(H   2,O   0)                0.9875 -0.002224  0.0019    0.9894   
     3. A(H   1,O   0,H   2)          100.03 -0.000232   -0.01    100.02   
    ----------------------------------------------------------------------------

         *************************************************************
         *                GEOMETRY OPTIMIZATION CYCLE   4            *
         *************************************************************
---------------------------------
CARTESIAN COORDINATES (ANGSTROEM)
---------------------------------
  O      0.000000    0.033594    0.033594
  H      0.000000    1.019246   -0.052839
  H      0.000000   -0.052839    1.019246

----------------------------
CARTESIAN COORDINATES (A.U.)
----------------------------
  NO LB      ZA    FRAG     MASS         X           Y           Z
   0 O     8.0000    0    15.999    0.000000    0.063483    0.063483
   1 H     1.0000    0     1.008    0.000000    1.926095   -0.099852
   2 H     1.0000    0     1.008    0.000000   -0.099852    1.926095

--------------------------------
INTERNAL COORDINATES (ANGSTROEM)
--------------------------------
 O      0   0   0     0.000000000000     0.00000000     0.00000000
 H      1   0   0     0.989434328224     0.00000000     0.00000000
 H      1   2   0     0.989434328224   100.02305271     0.00000000

---------------------------
INTERNAL COORDINATES (A.U.)
---------------------------
 O      0   0   0     0.000000000000     0.00000000     0.00000000
 H      1   0   0     1.869759907843     0.00000000     0.00000000
 H      1   2   0     1.869759907843   100.02305271     0.00000000


Diagonalization of the overlap matrix:
Smallest eigenvalue                        ... 3.632e-01
Time for diagonalization                   ...    0.000 sec
Threshold for overlap eigenvalues          ... 1.000e-08
Number of eigenvalues below threshold      ... 0
Time for construction of square roots      ...    0.000 sec
Total time needed                          ...    0.001 sec

--------------
SCF ITERATIONS
--------------
ITER       Energy         Delta-E        Max-DP      RMS-DP      [F,P]     Damp
               ***  Starting incremental Fock matrix formation  ***
                      *** Initiating the SOSCF procedure ***
                      *** Re-Reading the Fockian *** 
                      *** Removing any level shift *** 
ITER      Energy       Delta-E        Grad      Rot      Max-DP    RMS-DP
  0    -74.96590040 -74.9659003968  0.000520  0.000520  0.000672  0.000221
               *** Restarting incremental Fock matrix formation ***
  1    -74.96590108  -0.0000006790  0.000179  0.000171  0.000350  0.000089
  2    -74.96590117  -0.0000000931  0.000066  0.000115  0.000257  0.000063
  3    -74.96590119  -0.0000000214  0.000005  0.000003  0.000007  0.000001
                 **** Energy Check signals convergence ****
              ***Rediagonalizing the Fockian in SOSCF/NRSCF***

               *****************************************************
               *                     SUCCESS                       *
               *           SCF CONVERGED AFTER   4 CYCLES          *
               *****************************************************

Total Energy       :          -74.96590119 Eh           -2039.92588 eV
  Last Energy change         ...   -3.6209e-11  Tolerance :   1.0000e-08
  Last MAX-Density change    ...    2.1177e-06  Tolerance :   1.0000e-07
             **** THE GBW FILE WAS UPDATED (water.gbw) ****
             **** DENSITY FILE WAS UPDATED (water.scfp) ****
             **** ENERGY FILE WAS UPDATED (water.en.tmp) ****
             **** THE GBW FILE WAS UPDATED (water.gbw) ****
             **** DENSITY FILE WAS UPDATED (water.scfp) ****
Total SCF time: 0 days 0 hours 0 min 0 sec 

-------------------------   --------------------
FINAL SINGLE POINT ENERGY       -74.965901190375
-------------------------   --------------------

------------------------------------------------------------------------------
                         ORCA SCF GRADIENT CALCULATION
------------------------------------------------------------------------------

Gradient of the Hartree-Fock SCF energy:
Hartree-Fock type                ... RHF
Number of operators              ...    1
Number of atoms                  ...    3
Basis set dimensions             ...    7
Integral neglect threshold       ... 2.5e-11
Integral primitive cutoff        ... 2.5e-12

Nuclear repulsion gradient       ... done
One Electron Gradient            ... done
Pre-screening matrix             ... done
Starting the two electron gradient:
Two electron gradient done

------------------
CARTESIAN GRADIENT
------------------

   1   O   :    0.000000000   -0.000033986   -0.000033986
   2   H   :   -0.000000000    0.000027640    0.000006346
   3   H   :   -0.000000000    0.000006346    0.000027640

Difference to translation invariance:
           :    0.0000000000   -0.0000000000    0.0000000000

Norm of the cartesian gradient     ...    0.0000625982
RMS gradient                       ...    0.0000208661
MAX gradient                       ...    0.0000339858

-------
TIMINGS
-------

Total SCF gradient time            ...        0.093 sec

One electron gradient       ....       0.000 sec  (  0.5%)
Prescreening matrices       ....       0.000 sec  (  0.4%)
Two electron gradient       ....       0.002 sec  (  2.0%)
------------------------------------------------------------------------------
                         ORCA GEOMETRY RELAXATION STEP
------------------------------------------------------------------------------

Reading the OPT-File                    .... done
Getting information on internals        .... done
Copying old internal coords+grads       .... done
Making the new internal coordinates     .... (new redundants).... done
Validating the new internal coordinates .... (new redundants).... done
Calculating the B-matrix                .... done
Calculating the G,G- and P matrices     .... done
Transforming gradient to internals      .... done
Projecting the internal gradient        .... done
Number of atoms                         ....   3
Number of internal coordinates          ....   3
Current Energy                          ....   -74.965901190 Eh
Current gradient norm                   ....     0.000062598 Eh/bohr
Maximum allowed component of the step   ....  0.300
Current trust radius                    ....  0.300
Updating the Hessian (BFGS)             .... done
Forming the augmented Hessian           .... done
Diagonalizing the augmented Hessian     .... done
Last element of RFO vector              ....  0.999999996
Lowest eigenvalues of augmented Hessian:
 -0.000000004  0.305815261  0.448899677
Length of the computed step             ....  0.000091675
The final length of the internal step   ....  0.000091675
Converting the step to cartesian space:
 Initial RMS(Int)=    0.0000529285
Transforming coordinates:
 Iter   0:  RMS(Cart)=    0.0000205621 RMS(Int)=    0.0000529286
 Iter   1:  RMS(Cart)=    0.0000000008 RMS(Int)=    0.0000000012
done
Storing new coordinates                 .... done

                                .--------------------.
          ----------------------|Geometry convergence|-------------------------
          Item                value                   Tolerance       Converged
          ---------------------------------------------------------------------
          Energy change      -0.0000078780            0.0000050000      NO
          RMS gradient        0.0000239628            0.0001000000      YES
          MAX gradient        0.0000269799            0.0003000000      YES
          RMS step            0.0000529285            0.0020000000      YES
          MAX step            0.0000632686            0.0040000000      YES
          ........................................................
          Max(Bonds)      0.0000      Max(Angles)    0.00
          Max(Dihed)        0.00      Max(Improp)    0.00
          ---------------------------------------------------------------------

       Everything but the energy has converged. However, the energy
       appears to be close enough to convergence to make sure that the
       final evaluation at the new geometry represents the equilibrium energy.
       Convergence will therefore be signaled now


                    ***********************HURRAY********************
                    ***        THE OPTIMIZATION HAS CONVERGED     ***
                    *************************************************


    ---------------------------------------------------------------------------
                         Redundant Internal Coordinates

                          --- Optimized Parameters ---  
                            (Angstroem and degrees)

        Definition                    OldVal   dE/dq     Step     FinalVal
    ----------------------------------------------------------------------------
     1. B(H   1,O   0)                0.9894  0.000027 -0.0000    0.9894   
     2. B(H   2,O   0)                0.9894  0.000027 -0.0000    0.9894   
     3. A(H   1,O   0,H   2)          100.02 -0.000016    0.00    100.03   
    ----------------------------------------------------------------------------
                 *******************************************************
                 *** FINAL ENERGY EVALUATION AT THE STATIONARY POINT ***
                 ***               (AFTER    4 CYCLES)               ***
                 *******************************************************
---------------------------------
CARTESIAN COORDINATES (ANGSTROEM)
---------------------------------
  O      0.000000    0.033613    0.033613
  H      0.000000    1.019237   -0.052850
  H      0.000000   -0.052850    1.019237

----------------------------
CARTESIAN COORDINATES (A.U.)
----------------------------
  NO LB      ZA    FRAG     MASS         X           Y           Z
   0 O     8.0000    0    15.999    0.000000    0.063519    0.063519
   1 H     1.0000    0     1.008    0.000000    1.926079   -0.099871
   2 H     1.0000    0     1.008    0.000000   -0.099871    1.926079

--------------------------------
INTERNAL COORDINATES (ANGSTROEM)
--------------------------------
 O      0   0   0     0.000000000000     0.00000000     0.00000000
 H      1   0   0     0.989409503742     0.00000000     0.00000000
 H      1   2   0     0.989409503742   100.02667774     0.00000000

---------------------------
INTERNAL COORDINATES (A.U.)
---------------------------
 O      0   0   0     0.000000000000     0.00000000     0.00000000
 H      1   0   0     1.869712996371     0.00000000     0.00000000
 H      1   2   0     1.869712996371   100.02667774     0.00000000

---------------------
BASIS SET INFORMATION
---------------------
There are 2 groups of distinct atoms

 Group   1 Type O   : 6s3p contracted to 2s1p pattern {33/3}
 Group   2 Type H   : 3s contracted to 1s pattern {3}

Atom   0O    basis set group =>   1
Atom   1H    basis set group =>   2
Atom   2H    basis set group =>   2
------------------------------------------------------------------------------
                           ORCA GTO INTEGRAL CALCULATION
------------------------------------------------------------------------------

                         BASIS SET STATISTICS AND STARTUP INFO

 # of primitive gaussian shells          ...   15
 # of primitive gaussian functions       ...   21
 # of contracted shells                  ...    5
 # of contracted basis functions         ...    7
 Highest angular momentum                ...    1
 Maximum contraction depth               ...    3
 Integral package used                   ... LIBINT
 Integral threshhold            Thresh   ...  2.500e-11
 Primitive cut-off              TCut     ...  2.500e-12


------------------------------ INTEGRAL EVALUATION ----------------------------


 * One electron integrals 
 Pre-screening matrix                    ... done
 Shell pair data                         ... done (   0.000 sec)

-------------------------------------------------------------------------------
                                 ORCA SCF
-------------------------------------------------------------------------------

------------
SCF SETTINGS
------------
Hamiltonian:
 Ab initio Hamiltonian  Method          .... Hartree-Fock(GTOs)


General Settings:
 Integral files         IntName         .... water
 Hartree-Fock type      HFTyp           .... RHF
 Total Charge           Charge          ....    0
 Multiplicity           Mult            ....    1
 Number of Electrons    NEL             ....   10
 Basis Dimension        Dim             ....    7
 Nuclear Repulsion      ENuc            ....      8.9064879021 Eh

Convergence Acceleration:
 DIIS                   CNVDIIS         .... on
   Start iteration      DIISMaxIt       ....    12
   Startup error        DIISStart       ....  0.200000
   # of expansion vecs  DIISMaxEq       ....     5
   Bias factor          DIISBfac        ....   1.050
   Max. coefficient     DIISMaxC        ....  10.000
 Newton-Raphson         CNVNR           .... off
 SOSCF                  CNVSOSCF        .... on
   Start iteration      SOSCFMaxIt      ....   150
   Startup grad/error   SOSCFStart      ....  0.003300
 Level Shifting         CNVShift        .... on
   Level shift para.    LevelShift      ....    0.2500
   Turn off err/grad.   ShiftErr        ....    0.0010
 Zerner damping         CNVZerner       .... off
 Static damping         CNVDamp         .... on
   Fraction old density DampFac         ....    0.7000
   Max. Damping (<1)    DampMax         ....    0.9800
   Min. Damping (>=0)   DampMin         ....    0.0000
   Turn off err/grad.   DampErr         ....    0.1000
 Fernandez-Rico         CNVRico         .... off

SCF Procedure:
 Maximum # iterations   MaxIter         ....   125
 SCF integral mode      SCFMode         .... Direct
   Integral package                     .... LIBINT
 Reset frequency        DirectResetFreq ....    20
 Integral Threshold     Thresh          ....  2.500e-11 Eh
 Primitive CutOff       TCut            ....  2.500e-12 Eh

Convergence Tolerance:
 Convergence Check Mode ConvCheckMode   .... Total+1el-Energy
 Convergence forced     ConvForced      .... 0
 Energy Change          TolE            ....  1.000e-08 Eh
 1-El. energy change                    ....  1.000e-05 Eh
 Orbital Gradient       TolG            ....  1.000e-05
 Orbital Rotation angle TolX            ....  1.000e-05
 DIIS Error             TolErr          ....  5.000e-07


Diagonalization of the overlap matrix:
Smallest eigenvalue                        ... 3.632e-01
Time for diagonalization                   ...    0.000 sec
Threshold for overlap eigenvalues          ... 1.000e-08
Number of eigenvalues below threshold      ... 0
Time for construction of square roots      ...    0.000 sec
Total time needed                          ...    0.001 sec

---------------------
INITIAL GUESS: MOREAD
---------------------
Guess MOs are being read from file: water.gbw
Input Geometry matches current geometry (good)
Input basis set matches current basis set (good)
MOs were renormalized
MOs were reorthogonalized (Cholesky)
                      ------------------
                      INITIAL GUESS DONE (   0.0 sec)
                      ------------------
--------------
SCF ITERATIONS
--------------
ITER       Energy         Delta-E        Max-DP      RMS-DP      [F,P]     Damp
               ***  Starting incremental Fock matrix formation  ***
                      *** Initiating the SOSCF procedure ***
                      *** Re-Reading the Fockian *** 
                      *** Removing any level shift *** 
ITER      Energy       Delta-E        Grad      Rot      Max-DP    RMS-DP
  0    -74.96590119 -74.9659011918  0.000012  0.000012  0.000015  0.000005
               *** Restarting incremental Fock matrix formation ***
                 **** Energy Check signals convergence ****
              ***Rediagonalizing the Fockian in SOSCF/NRSCF***

               *****************************************************
               *                     SUCCESS                       *
               *           SCF CONVERGED AFTER   1 CYCLES          *
               *****************************************************


----------------
TOTAL SCF ENERGY
----------------

Total Energy       :          -74.96590119 Eh           -2039.92588 eV

Components:
Nuclear Repulsion  :            8.90648790 Eh             242.35786 eV
Electronic Energy  :          -83.87238909 Eh           -2282.28374 eV
One Electron Energy:         -121.83411991 Eh           -3315.27495 eV
Two Electron Energy:           37.96173082 Eh            1032.99121 eV

Virial components:
Potential Energy   :         -149.48450599 Eh           -4067.68020 eV
Kinetic Energy     :           74.51860480 Eh            2027.75433 eV
Virial Ratio       :            2.00600248


---------------
SCF CONVERGENCE
---------------

  Last Energy change         ...   -3.1562e-10  Tolerance :   1.0000e-08
  Last MAX-Density change    ...    9.9661e-06  Tolerance :   1.0000e-07
  Last RMS-Density change    ...    2.4166e-06  Tolerance :   5.0000e-09
  Last Orbital Gradient      ...    4.7296e-06  Tolerance :   1.0000e-05
  Last Orbital Rotation      ...    4.5410e-06  Tolerance :   1.0000e-05

             **** THE GBW FILE WAS UPDATED (water.gbw) ****
             **** DENSITY FILE WAS UPDATED (water.scfp) ****
             **** ENERGY FILE WAS UPDATED (water.en.tmp) ****
             **** THE GBW FILE WAS UPDATED (water.gbw) ****
             **** DENSITY FILE WAS UPDATED (water.scfp) ****
----------------
ORBITAL ENERGIES
----------------

  NO   OCC          E(Eh)            E(eV) 
   0   2.0000     -20.251579      -551.0735 
   1   2.0000      -1.257550       -34.2197 
   2   2.0000      -0.593856       -16.1596 
   3   2.0000      -0.459730       -12.5099 
   4   2.0000      -0.392618       -10.6837 
   5   0.0000       0.581795        15.8314 
   6   0.0000       0.692672        18.8486 

                    ********************************
                    * MULLIKEN POPULATION ANALYSIS *
                    ********************************

-----------------------
MULLIKEN ATOMIC CHARGES
-----------------------
   0 O :   -0.330529
   1 H :    0.165265
   2 H :    0.165265
Sum of atomic charges:    0.0000000

--------------------------------
MULLIKEN REDUCED ORBITAL CHARGES
--------------------------------
  0 O s       :     3.846767  s :     3.846767
      pz      :     1.241881  p :     4.483763
      px      :     2.000000
      py      :     1.241881
  1 H s       :     0.834735  s :     0.834735
  2 H s       :     0.834735  s :     0.834735


                     *******************************
                     * LOEWDIN POPULATION ANALYSIS *
                     *******************************

----------------------
LOEWDIN ATOMIC CHARGES
----------------------
   0 O :   -0.231552
   1 H :    0.115776
   2 H :    0.115776

-------------------------------
LOEWDIN REDUCED ORBITAL CHARGES
-------------------------------
  0 O s       :     3.707692  s :     3.707692
      pz      :     1.261930  p :     4.523860
      px      :     2.000000
      py      :     1.261930
  1 H s       :     0.884224  s :     0.884224
  2 H s       :     0.884224  s :     0.884224


                      *****************************
                      * MAYER POPULATION ANALYSIS *
                      *****************************

  NA   - Mulliken gross atomic population
  ZA   - Total nuclear charge
  QA   - Mulliken gross atomic charge
  VA   - Mayer's total valence
  BVA  - Mayer's bonded valence
  FA   - Mayer's free valence

  ATOM       NA         ZA         QA         VA         BVA        FA
  0 O      8.3305     8.0000    -0.3305     1.9284     1.9284     0.0000
  1 H      0.8347     1.0000     0.1653     0.9727     0.9727     0.0000
  2 H      0.8347     1.0000     0.1653     0.9727     0.9727     0.0000

  Mayer bond orders larger than 0.100000
B(  0-O ,  1-H ) :   0.9642 B(  0-O ,  2-H ) :   0.9642 

-------
TIMINGS
-------

Total SCF time: 0 days 0 hours 0 min 0 sec 

Total time                  ....       0.228 sec
Sum of individual times     ....       0.094 sec  ( 41.0%)

Fock matrix formation       ....       0.092 sec  ( 40.3%)
Diagonalization             ....       0.000 sec  (  0.0%)
Density matrix formation    ....       0.000 sec  (  0.0%)
Population analysis         ....       0.000 sec  (  0.2%)
Initial guess               ....       0.001 sec  (  0.3%)
Orbital Transformation      ....       0.000 sec  (  0.0%)
Orbital Orthonormalization  ....       0.000 sec  (  0.0%)
DIIS solution               ....       0.000 sec  (  0.0%)
SOSCF solution              ....       0.000 sec  (  0.1%)

-------------------------   --------------------
FINAL SINGLE POINT ENERGY       -74.965901192107
-------------------------   --------------------

                                *** OPTIMIZATION RUN DONE ***

                            ***************************************
                            *     ORCA property calculations      *
                            ***************************************

                                    ---------------------
                                    Active property flags
                                    ---------------------
   (+) Dipole Moment


------------------------------------------------------------------------------
                       ORCA ELECTRIC PROPERTIES CALCULATION
------------------------------------------------------------------------------

Dipole Moment Calculation                       ... on
Quadrupole Moment Calculation                   ... off
Polarizability Calculation                      ... off
GBWName                                         ... water.gbw
Electron density file                           ... water.scfp
The origin for moment calculation is the CENTER OF MASS  = ( 0.000000,  0.158593  0.158593)

-------------
DIPOLE MOMENT
-------------
                                X             Y             Z
Electronic contribution:     -0.00000      -0.27293      -0.27293
Nuclear contribution   :      0.00000       0.74843       0.74843
                        -----------------------------------------
Total Dipole Moment    :     -0.00000       0.47550       0.47550
                        -----------------------------------------
Magnitude (a.u.)       :      0.67245
Magnitude (Debye)      :      1.70924



--------------------
Rotational spectrum 
--------------------
 
Rotational constants in cm-1:    23.291727    14.550457     8.955754 
Rotational constants in MHz : 698268.420551 436211.740604 268486.742710 

 Dipole components along the rotational axes: 
x,y,z [a.u.] :    -0.000000    -0.672452    -0.000000 
x,y,z [Debye]:    -0.000000    -1.709237    -0.000000 

 

-------------------------------------------------------------------------------
                               ORCA SCF HESSIAN
-------------------------------------------------------------------------------

Hessian of the Hartree-Fock SCF energy:
Hartree-Fock type                                ... RHF
Number of operators                              ...    1
Number of atoms                                  ...    3
Basis set dimensions                             ...    7
Integral neglect threshold                       ... 2.5e-11
Integral primitive cutoff                        ... 2.5e-12

Nuclear repulsion Hessian                        ... done   (      0.0 sec)

----------------------------------------------
Forming right-hand sides of CP-SCF equations     ...
----------------------------------------------
One electron integral derivatives                ... done   (      0.1 sec)
Transforming the overlap derivative matrices     ... done   (      0.0 sec)
Making the Q(x) pseudodensities                  ... done   (      0.0 sec)
Adding the E*S(x)*S(y) terms to the Hessian      ... done   (      0.0 sec)
Calculating energy weighted overlap derivatives  ... done   (      0.0 sec)
Two electron integral derivatives                ... done   (      0.1 sec)
tr(F(y)Q(x)) contribution to the Hessian         ... done   (      0.0 sec)
Response fock operator R(S(x))                   ... done   (      0.1 sec)
tr(F(y)S(x)) contribution to the Hessian         ... done   (      0.0 sec)
Transforming and finalizing RHSs                 ... done   (      0.0 sec)

----------------------------------------------
Solving the CP-SCF equations                     ...
----------------------------------------------
     CP-SCF ITERATION   0: 
     CP-SCF ITERATION   1:      0.000044192858
     CP-SCF ITERATION   2:      0.000000531841
     CP-SCF ITERATION   3:      0.000000008118

                                                 ... done   (      0.3 sec)
Forming perturbed density Hessian contributions  ... done   (      0.0 sec)
Making the perturbed densities                   ... done   (      0.0 sec)
2nd integral derivative contribs                 ... done   (      0.1 sec)
Dipol derivatives                                ... done   (      0.1 sec)

Total SCF Hessian time: 0 days 0 hours 0 min 0 sec 

Writing the Hessian file to the disk             ... done


Maximum memory used throughout the entire calculation: 70.6 MB

-----------------------
VIBRATIONAL FREQUENCIES
-----------------------

Scaling factor for frequencies =  1.000000000  (already applied!)

   0:         0.00 cm**-1
   1:         0.00 cm**-1
   2:         0.00 cm**-1
   3:         0.00 cm**-1
   4:         0.00 cm**-1
   5:         0.00 cm**-1
   6:      2169.82 cm**-1
   7:      4139.53 cm**-1
   8:      4390.57 cm**-1


------------
NORMAL MODES
------------

These modes are the Cartesian displacements weighted by the diagonal matrix
M(i,i)=1/sqrt(m[i]) where m[i] is the mass of the displaced atom
Thus, these vectors are normalized but *not* orthogonal

                  0          1          2          3          4          5    
      0       0.000000   0.000000   0.000000   0.000000   0.000000   0.000000
      1       0.000000   0.000000   0.000000   0.000000   0.000000   0.000000
      2       0.000000   0.000000   0.000000   0.000000   0.000000   0.000000
      3       0.000000   0.000000   0.000000   0.000000   0.000000   0.000000
      4       0.000000   0.000000   0.000000   0.000000   0.000000   0.000000
      5       0.000000   0.000000   0.000000   0.000000   0.000000   0.000000
      6       0.000000   0.000000   0.000000   0.000000   0.000000   0.000000
      7       0.000000   0.000000   0.000000   0.000000   0.000000   0.000000
      8       0.000000   0.000000   0.000000   0.000000   0.000000   0.000000
                   6          7          8    
      0       0.000000   0.000000   0.000000
      1       0.048552  -0.037103  -0.048161
      2       0.048552  -0.037103   0.048161
      3       0.000000   0.000000   0.000000
      4      -0.068508   0.697700   0.702766
      5      -0.702104  -0.108802  -0.061649
      6       0.000000   0.000000   0.000000
      7      -0.702104  -0.108802   0.061649
      8      -0.068508   0.697700  -0.702766


-----------
IR SPECTRUM
-----------

 Mode    freq (cm**-1)   T**2         TX         TY         TZ
-------------------------------------------------------------------
   6:      2169.82    7.239332  ( -0.000000  -1.902542  -1.902542)
   7:      4139.53   44.272097  ( -0.000000  -4.704896  -4.704896)
   8:      4390.57   29.975431  (  0.000000  -3.871397   3.871397)

The first frequency considered to be a vibration is 6
The total number of vibrations considered is 3


--------------------------
THERMOCHEMISTRY AT 298.15K
--------------------------

Temperature         ... 298.15 K
Pressure            ... 1.00 atm
Total Mass          ... 18.02 AMU

Throughout the following assumptions are being made:
  (1) The electronic state is orbitally nondegenerate
  (2) There are no thermally accessible electronically excited states
  (3) Hindered rotations indicated by low frequency modes are not
      treated as such but are treated as vibrations and this may
      cause some error
  (4) All equations used are the standard statistical mechanics
      equations for an ideal gas
  (5) All vibrations are strictly harmonic

freq.    2169.82  E(vib)   ...       0.00 
freq.    4139.53  E(vib)   ...       0.00 
freq.    4390.57  E(vib)   ...       0.00 

------------
INNER ENERGY
------------

The inner energy is: U= E(el) + E(ZPE) + E(vib) + E(rot) + E(trans)
    E(el)   - is the total energy from the electronic structure calculation
              = E(kin-el) + E(nuc-el) + E(el-el) + E(nuc-nuc)
    E(ZPE)  - the the zero temperature vibrational energy from the frequency calculation
    E(vib)  - the the finite temperature correction to E(ZPE) due to population
              of excited vibrational states
    E(rot)  - is the rotational thermal energy
    E(trans)- is the translational thermal energy

Summary of contributions to the inner energy U:
Electronic energy                ...    -74.96590119 Eh
Zero point energy                ...      0.02437621 Eh      15.30 kcal/mol
Thermal vibrational correction   ...      0.00000028 Eh       0.00 kcal/mol
Thermal rotational correction    ...      0.00141627 Eh       0.89 kcal/mol
Thermal translational correction ...      0.00141627 Eh       0.89 kcal/mol
-----------------------------------------------------------------------
Total thermal energy                    -74.93869216 Eh


Summary of corrections to the electronic energy:
(perhaps to be used in another calculation)
Total thermal correction                  0.00283282 Eh       1.78 kcal/mol
Non-thermal (ZPE) correction              0.02437621 Eh      15.30 kcal/mol
-----------------------------------------------------------------------
Total correction                          0.02720904 Eh      17.07 kcal/mol


--------
ENTHALPY
--------

The enthalpy is H = U + kB*T
                kB is Boltzmann's constant
Total free energy                 ...    -74.93869216 Eh 
Thermal Enthalpy correction       ...      0.00094421 Eh       0.59 kcal/mol
-----------------------------------------------------------------------
Total Enthalpy                    ...    -74.93774795 Eh


Note: Rotational entropy computed according to Herzberg 
Infrared and Raman Spectra, Chapter V,1, Van Nostrand Reinhold, 1945 
Point Group:  C2v, Symmetry Number:   2  
Rotational constants in cm-1:    23.291727    14.550457     8.955754 

Vibrational entropy computed according to the QRRHO of S. Grimme
Chem.Eur.J. 2012 18 9955


-------
ENTROPY
-------

The entropy contributions are T*S = T*(S(el)+S(vib)+S(rot)+S(trans))
     S(el)   - electronic entropy
     S(vib)  - vibrational entropy
     S(rot)  - rotational entropy
     S(trans)- translational entropy
The entropies will be listed as mutliplied by the temperature to get
units of energy

Electronic entropy                ...      0.00000000 Eh      0.00 kcal/mol
Vibrational entropy               ...      0.00000031 Eh      0.00 kcal/mol
Rotational entropy                ...      0.00507112 Eh      3.18 kcal/mol
Translational entropy             ...      0.01644380 Eh     10.32 kcal/mol
-----------------------------------------------------------------------
Final entropy term                ...      0.02151523 Eh     13.50 kcal/mol

In case the symmetry of your molecule has not been determined correctly
or in case you have a reason to use a different symmetry number we print 
out the resulting rotational entropy values for sn=1,12 :
 --------------------------------------------------------
|  sn= 1 | S(rot)=       0.00572558 Eh      3.59 kcal/mol|
|  sn= 2 | S(rot)=       0.00507112 Eh      3.18 kcal/mol|
|  sn= 3 | S(rot)=       0.00468829 Eh      2.94 kcal/mol|
|  sn= 4 | S(rot)=       0.00441667 Eh      2.77 kcal/mol|
|  sn= 5 | S(rot)=       0.00420598 Eh      2.64 kcal/mol|
|  sn= 6 | S(rot)=       0.00403384 Eh      2.53 kcal/mol|
|  sn= 7 | S(rot)=       0.00388829 Eh      2.44 kcal/mol|
|  sn= 8 | S(rot)=       0.00376221 Eh      2.36 kcal/mol|
|  sn= 9 | S(rot)=       0.00365100 Eh      2.29 kcal/mol|
|  sn=10 | S(rot)=       0.00355152 Eh      2.23 kcal/mol|
|  sn=11 | S(rot)=       0.00346153 Eh      2.17 kcal/mol|
|  sn=12 | S(rot)=       0.00337938 Eh      2.12 kcal/mol|
 --------------------------------------------------------


-------------------
GIBBS FREE ENERGY
-------------------

The Gibbs free energy is G = H - T*S

Total enthalpy                    ...    -74.93774795 Eh 
Total entropy correction          ...     -0.02151523 Eh    -13.50 kcal/mol
-----------------------------------------------------------------------
Final Gibbs free energy         ...    -74.95926318 Eh

For completeness - the Gibbs free energy minus the electronic energy
G-E(el)                           ...      0.00663801 Eh      4.17 kcal/mol


Timings for individual modules:

Sum of individual times         ...        4.943 sec (=   0.082 min)
GTO integral calculation        ...        0.966 sec (=   0.016 min)  19.5 %
SCF iterations                  ...        2.499 sec (=   0.042 min)  50.6 %
SCF Gradient evaluation         ...        0.484 sec (=   0.008 min)   9.8 %
Geometry relaxation             ...        0.146 sec (=   0.002 min)   3.0 %
Analytical frequency calculation...        0.848 sec (=   0.014 min)  17.2 %
                             ****ORCA TERMINATED NORMALLY****
TOTAL RUN TIME: 0 days 0 hours 0 minutes 5 seconds 151 msec
